TITLE = "Correct 1D Riemann Exact Solution"
VARIABLES = "X", "Density", "Velocity", "Pressure"
ZONE T="Exact", I=2762, F=POINT
-2.761223	1.000000	0.000000	1.000000
-2.759223	1.000000	0.000000	1.000000
-2.757223	1.000000	0.000000	1.000000
-2.755223	1.000000	0.000000	1.000000
-2.753223	1.000000	0.000000	1.000000
-2.751223	1.000000	0.000000	1.000000
-2.749223	1.000000	0.000000	1.000000
-2.747223	1.000000	0.000000	1.000000
-2.745223	1.000000	0.000000	1.000000
-2.743223	1.000000	0.000000	1.000000
-2.741223	1.000000	0.000000	1.000000
-2.739223	1.000000	0.000000	1.000000
-2.737223	1.000000	0.000000	1.000000
-2.735223	1.000000	0.000000	1.000000
-2.733223	1.000000	0.000000	1.000000
-2.731223	1.000000	0.000000	1.000000
-2.729223	1.000000	0.000000	1.000000
-2.727223	1.000000	0.000000	1.000000
-2.725223	1.000000	0.000000	1.000000
-2.723223	1.000000	0.000000	1.000000
-2.721223	1.000000	0.000000	1.000000
-2.719223	1.000000	0.000000	1.000000
-2.717223	1.000000	0.000000	1.000000
-2.715223	1.000000	0.000000	1.000000
-2.713223	1.000000	0.000000	1.000000
-2.711223	1.000000	0.000000	1.000000
-2.709223	1.000000	0.000000	1.000000
-2.707223	1.000000	0.000000	1.000000
-2.705223	1.000000	0.000000	1.000000
-2.703223	1.000000	0.000000	1.000000
-2.701223	1.000000	0.000000	1.000000
-2.699223	1.000000	0.000000	1.000000
-2.697223	1.000000	0.000000	1.000000
-2.695223	1.000000	0.000000	1.000000
-2.693223	1.000000	0.000000	1.000000
-2.691223	1.000000	0.000000	1.000000
-2.689223	1.000000	0.000000	1.000000
-2.687223	1.000000	0.000000	1.000000
-2.685223	1.000000	0.000000	1.000000
-2.683223	1.000000	0.000000	1.000000
-2.681223	1.000000	0.000000	1.000000
-2.679223	1.000000	0.000000	1.000000
-2.677223	1.000000	0.000000	1.000000
-2.675223	1.000000	0.000000	1.000000
-2.673223	1.000000	0.000000	1.000000
-2.671223	1.000000	0.000000	1.000000
-2.669223	1.000000	0.000000	1.000000
-2.667223	1.000000	0.000000	1.000000
-2.665223	1.000000	0.000000	1.000000
-2.663223	1.000000	0.000000	1.000000
-2.661223	1.000000	0.000000	1.000000
-2.659223	1.000000	0.000000	1.000000
-2.657223	1.000000	0.000000	1.000000
-2.655223	1.000000	0.000000	1.000000
-2.653223	1.000000	0.000000	1.000000
-2.651223	1.000000	0.000000	1.000000
-2.649223	1.000000	0.000000	1.000000
-2.647223	1.000000	0.000000	1.000000
-2.645223	1.000000	0.000000	1.000000
-2.643223	1.000000	0.000000	1.000000
-2.641223	1.000000	0.000000	1.000000
-2.639223	1.000000	0.000000	1.000000
-2.637223	1.000000	0.000000	1.000000
-2.635223	1.000000	0.000000	1.000000
-2.633223	1.000000	0.000000	1.000000
-2.631223	1.000000	0.000000	1.000000
-2.629223	1.000000	0.000000	1.000000
-2.627223	1.000000	0.000000	1.000000
-2.625223	1.000000	0.000000	1.000000
-2.623223	1.000000	0.000000	1.000000
-2.621223	1.000000	0.000000	1.000000
-2.619223	1.000000	0.000000	1.000000
-2.617223	1.000000	0.000000	1.000000
-2.615223	1.000000	0.000000	1.000000
-2.613223	1.000000	0.000000	1.000000
-2.611223	1.000000	0.000000	1.000000
-2.609223	1.000000	0.000000	1.000000
-2.607223	1.000000	0.000000	1.000000
-2.605223	1.000000	0.000000	1.000000
-2.603223	1.000000	0.000000	1.000000
-2.601223	1.000000	0.000000	1.000000
-2.599223	1.000000	0.000000	1.000000
-2.597223	1.000000	0.000000	1.000000
-2.595223	1.000000	0.000000	1.000000
-2.593223	1.000000	0.000000	1.000000
-2.591223	1.000000	0.000000	1.000000
-2.589223	1.000000	0.000000	1.000000
-2.587223	1.000000	0.000000	1.000000
-2.585223	1.000000	0.000000	1.000000
-2.583223	1.000000	0.000000	1.000000
-2.581223	1.000000	0.000000	1.000000
-2.579223	1.000000	0.000000	1.000000
-2.577223	1.000000	0.000000	1.000000
-2.575223	1.000000	0.000000	1.000000
-2.573223	1.000000	0.000000	1.000000
-2.571223	1.000000	0.000000	1.000000
-2.569223	1.000000	0.000000	1.000000
-2.567223	1.000000	0.000000	1.000000
-2.565223	1.000000	0.000000	1.000000
-2.563223	1.000000	0.000000	1.000000
-2.561223	1.000000	0.000000	1.000000
-2.559223	1.000000	0.000000	1.000000
-2.557223	1.000000	0.000000	1.000000
-2.555223	1.000000	0.000000	1.000000
-2.553223	1.000000	0.000000	1.000000
-2.551223	1.000000	0.000000	1.000000
-2.549223	1.000000	0.000000	1.000000
-2.547223	1.000000	0.000000	1.000000
-2.545223	1.000000	0.000000	1.000000
-2.543223	1.000000	0.000000	1.000000
-2.541223	1.000000	0.000000	1.000000
-2.539223	1.000000	0.000000	1.000000
-2.537223	1.000000	0.000000	1.000000
-2.535223	1.000000	0.000000	1.000000
-2.533223	1.000000	0.000000	1.000000
-2.531223	1.000000	0.000000	1.000000
-2.529223	1.000000	0.000000	1.000000
-2.527223	1.000000	0.000000	1.000000
-2.525223	1.000000	0.000000	1.000000
-2.523223	1.000000	0.000000	1.000000
-2.521223	1.000000	0.000000	1.000000
-2.519223	1.000000	0.000000	1.000000
-2.517223	1.000000	0.000000	1.000000
-2.515223	1.000000	0.000000	1.000000
-2.513223	1.000000	0.000000	1.000000
-2.511223	1.000000	0.000000	1.000000
-2.509223	1.000000	0.000000	1.000000
-2.507223	1.000000	0.000000	1.000000
-2.505223	1.000000	0.000000	1.000000
-2.503223	1.000000	0.000000	1.000000
-2.501223	1.000000	0.000000	1.000000
-2.499223	1.000000	0.000000	1.000000
-2.497223	1.000000	0.000000	1.000000
-2.495223	1.000000	0.000000	1.000000
-2.493223	1.000000	0.000000	1.000000
-2.491223	1.000000	0.000000	1.000000
-2.489223	1.000000	0.000000	1.000000
-2.487223	1.000000	0.000000	1.000000
-2.485223	1.000000	0.000000	1.000000
-2.483223	1.000000	0.000000	1.000000
-2.481223	1.000000	0.000000	1.000000
-2.479223	1.000000	0.000000	1.000000
-2.477223	1.000000	0.000000	1.000000
-2.475223	1.000000	0.000000	1.000000
-2.473223	1.000000	0.000000	1.000000
-2.471223	1.000000	0.000000	1.000000
-2.469223	1.000000	0.000000	1.000000
-2.467223	1.000000	0.000000	1.000000
-2.465223	1.000000	0.000000	1.000000
-2.463223	1.000000	0.000000	1.000000
-2.461223	1.000000	0.000000	1.000000
-2.459223	1.000000	0.000000	1.000000
-2.457223	1.000000	0.000000	1.000000
-2.455223	1.000000	0.000000	1.000000
-2.453223	1.000000	0.000000	1.000000
-2.451223	1.000000	0.000000	1.000000
-2.449223	1.000000	0.000000	1.000000
-2.447223	1.000000	0.000000	1.000000
-2.445223	1.000000	0.000000	1.000000
-2.443223	1.000000	0.000000	1.000000
-2.441223	1.000000	0.000000	1.000000
-2.439223	1.000000	0.000000	1.000000
-2.437223	1.000000	0.000000	1.000000
-2.435223	1.000000	0.000000	1.000000
-2.433223	1.000000	0.000000	1.000000
-2.431223	1.000000	0.000000	1.000000
-2.429223	1.000000	0.000000	1.000000
-2.427223	1.000000	0.000000	1.000000
-2.425223	1.000000	0.000000	1.000000
-2.423223	1.000000	0.000000	1.000000
-2.421223	1.000000	0.000000	1.000000
-2.419223	1.000000	0.000000	1.000000
-2.417223	1.000000	0.000000	1.000000
-2.415223	1.000000	0.000000	1.000000
-2.413223	1.000000	0.000000	1.000000
-2.411223	1.000000	0.000000	1.000000
-2.409223	1.000000	0.000000	1.000000
-2.407223	1.000000	0.000000	1.000000
-2.405223	1.000000	0.000000	1.000000
-2.403223	1.000000	0.000000	1.000000
-2.401223	1.000000	0.000000	1.000000
-2.399223	1.000000	0.000000	1.000000
-2.397223	1.000000	0.000000	1.000000
-2.395223	1.000000	0.000000	1.000000
-2.393223	1.000000	0.000000	1.000000
-2.391223	1.000000	0.000000	1.000000
-2.389223	1.000000	0.000000	1.000000
-2.387223	1.000000	0.000000	1.000000
-2.385223	1.000000	0.000000	1.000000
-2.383223	1.000000	0.000000	1.000000
-2.381223	1.000000	0.000000	1.000000
-2.379223	1.000000	0.000000	1.000000
-2.377223	1.000000	0.000000	1.000000
-2.375223	1.000000	0.000000	1.000000
-2.373223	1.000000	0.000000	1.000000
-2.371223	1.000000	0.000000	1.000000
-2.369223	1.000000	0.000000	1.000000
-2.367223	1.000000	0.000000	1.000000
-2.365223	1.000000	0.000000	1.000000
-2.363223	1.000000	0.000000	1.000000
-2.361223	1.000000	0.000000	1.000000
-2.359223	1.000000	0.000000	1.000000
-2.357223	1.000000	0.000000	1.000000
-2.355223	1.000000	0.000000	1.000000
-2.353223	1.000000	0.000000	1.000000
-2.351223	1.000000	0.000000	1.000000
-2.349223	1.000000	0.000000	1.000000
-2.347223	1.000000	0.000000	1.000000
-2.345223	1.000000	0.000000	1.000000
-2.343223	1.000000	0.000000	1.000000
-2.341223	1.000000	0.000000	1.000000
-2.339223	1.000000	0.000000	1.000000
-2.337223	1.000000	0.000000	1.000000
-2.335223	1.000000	0.000000	1.000000
-2.333223	1.000000	0.000000	1.000000
-2.331223	1.000000	0.000000	1.000000
-2.329223	1.000000	0.000000	1.000000
-2.327223	1.000000	0.000000	1.000000
-2.325223	1.000000	0.000000	1.000000
-2.323223	1.000000	0.000000	1.000000
-2.321223	1.000000	0.000000	1.000000
-2.319223	1.000000	0.000000	1.000000
-2.317223	1.000000	0.000000	1.000000
-2.315223	1.000000	0.000000	1.000000
-2.313223	1.000000	0.000000	1.000000
-2.311223	1.000000	0.000000	1.000000
-2.309223	1.000000	0.000000	1.000000
-2.307223	1.000000	0.000000	1.000000
-2.305223	1.000000	0.000000	1.000000
-2.303223	1.000000	0.000000	1.000000
-2.301223	1.000000	0.000000	1.000000
-2.299223	1.000000	0.000000	1.000000
-2.297223	1.000000	0.000000	1.000000
-2.295223	1.000000	0.000000	1.000000
-2.293223	1.000000	0.000000	1.000000
-2.291223	1.000000	0.000000	1.000000
-2.289223	1.000000	0.000000	1.000000
-2.287223	1.000000	0.000000	1.000000
-2.285223	1.000000	0.000000	1.000000
-2.283223	1.000000	0.000000	1.000000
-2.281223	1.000000	0.000000	1.000000
-2.279223	1.000000	0.000000	1.000000
-2.277223	1.000000	0.000000	1.000000
-2.275223	1.000000	0.000000	1.000000
-2.273223	1.000000	0.000000	1.000000
-2.271223	1.000000	0.000000	1.000000
-2.269223	1.000000	0.000000	1.000000
-2.267223	1.000000	0.000000	1.000000
-2.265223	1.000000	0.000000	1.000000
-2.263223	1.000000	0.000000	1.000000
-2.261223	1.000000	0.000000	1.000000
-2.259223	1.000000	0.000000	1.000000
-2.257223	1.000000	0.000000	1.000000
-2.255223	1.000000	0.000000	1.000000
-2.253223	1.000000	0.000000	1.000000
-2.251223	1.000000	0.000000	1.000000
-2.249223	1.000000	0.000000	1.000000
-2.247223	1.000000	0.000000	1.000000
-2.245223	1.000000	0.000000	1.000000
-2.243223	1.000000	0.000000	1.000000
-2.241223	1.000000	0.000000	1.000000
-2.239223	1.000000	0.000000	1.000000
-2.237223	1.000000	0.000000	1.000000
-2.235223	1.000000	0.000000	1.000000
-2.233223	1.000000	0.000000	1.000000
-2.231223	1.000000	0.000000	1.000000
-2.229223	1.000000	0.000000	1.000000
-2.227223	1.000000	0.000000	1.000000
-2.225223	1.000000	0.000000	1.000000
-2.223223	1.000000	0.000000	1.000000
-2.221223	1.000000	0.000000	1.000000
-2.219223	1.000000	0.000000	1.000000
-2.217223	1.000000	0.000000	1.000000
-2.215223	1.000000	0.000000	1.000000
-2.213223	1.000000	0.000000	1.000000
-2.211223	1.000000	0.000000	1.000000
-2.209223	1.000000	0.000000	1.000000
-2.207223	1.000000	0.000000	1.000000
-2.205223	1.000000	0.000000	1.000000
-2.203223	1.000000	0.000000	1.000000
-2.201223	1.000000	0.000000	1.000000
-2.199223	1.000000	0.000000	1.000000
-2.197223	1.000000	0.000000	1.000000
-2.195223	1.000000	0.000000	1.000000
-2.193223	1.000000	0.000000	1.000000
-2.191223	1.000000	0.000000	1.000000
-2.189223	1.000000	0.000000	1.000000
-2.187223	1.000000	0.000000	1.000000
-2.185223	1.000000	0.000000	1.000000
-2.183223	1.000000	0.000000	1.000000
-2.181223	1.000000	0.000000	1.000000
-2.179223	1.000000	0.000000	1.000000
-2.177223	1.000000	0.000000	1.000000
-2.175223	1.000000	0.000000	1.000000
-2.173223	1.000000	0.000000	1.000000
-2.171223	1.000000	0.000000	1.000000
-2.169223	1.000000	0.000000	1.000000
-2.167223	1.000000	0.000000	1.000000
-2.165223	1.000000	0.000000	1.000000
-2.163223	1.000000	0.000000	1.000000
-2.161223	1.000000	0.000000	1.000000
-2.159223	1.000000	0.000000	1.000000
-2.157223	1.000000	0.000000	1.000000
-2.155223	1.000000	0.000000	1.000000
-2.153223	1.000000	0.000000	1.000000
-2.151223	1.000000	0.000000	1.000000
-2.149223	1.000000	0.000000	1.000000
-2.147223	1.000000	0.000000	1.000000
-2.145223	1.000000	0.000000	1.000000
-2.143223	1.000000	0.000000	1.000000
-2.141223	1.000000	0.000000	1.000000
-2.139223	1.000000	0.000000	1.000000
-2.137223	1.000000	0.000000	1.000000
-2.135223	1.000000	0.000000	1.000000
-2.133223	1.000000	0.000000	1.000000
-2.131223	1.000000	0.000000	1.000000
-2.129223	1.000000	0.000000	1.000000
-2.127223	1.000000	0.000000	1.000000
-2.125223	1.000000	0.000000	1.000000
-2.123223	1.000000	0.000000	1.000000
-2.121223	1.000000	0.000000	1.000000
-2.119223	1.000000	0.000000	1.000000
-2.117223	1.000000	0.000000	1.000000
-2.115223	1.000000	0.000000	1.000000
-2.113223	1.000000	0.000000	1.000000
-2.111223	1.000000	0.000000	1.000000
-2.109223	1.000000	0.000000	1.000000
-2.107223	1.000000	0.000000	1.000000
-2.105223	1.000000	0.000000	1.000000
-2.103223	1.000000	0.000000	1.000000
-2.101223	1.000000	0.000000	1.000000
-2.099223	1.000000	0.000000	1.000000
-2.097223	1.000000	0.000000	1.000000
-2.095223	1.000000	0.000000	1.000000
-2.093223	1.000000	0.000000	1.000000
-2.091223	1.000000	0.000000	1.000000
-2.089223	1.000000	0.000000	1.000000
-2.087223	1.000000	0.000000	1.000000
-2.085223	1.000000	0.000000	1.000000
-2.083223	1.000000	0.000000	1.000000
-2.081223	1.000000	0.000000	1.000000
-2.079223	1.000000	0.000000	1.000000
-2.077223	1.000000	0.000000	1.000000
-2.075223	1.000000	0.000000	1.000000
-2.073223	1.000000	0.000000	1.000000
-2.071223	1.000000	0.000000	1.000000
-2.069223	1.000000	0.000000	1.000000
-2.067223	1.000000	0.000000	1.000000
-2.065223	1.000000	0.000000	1.000000
-2.063223	1.000000	0.000000	1.000000
-2.061223	1.000000	0.000000	1.000000
-2.059223	1.000000	0.000000	1.000000
-2.057223	1.000000	0.000000	1.000000
-2.055223	1.000000	0.000000	1.000000
-2.053223	1.000000	0.000000	1.000000
-2.051223	1.000000	0.000000	1.000000
-2.049223	1.000000	0.000000	1.000000
-2.047223	1.000000	0.000000	1.000000
-2.045223	1.000000	0.000000	1.000000
-2.043223	1.000000	0.000000	1.000000
-2.041223	1.000000	0.000000	1.000000
-2.039223	1.000000	0.000000	1.000000
-2.037223	1.000000	0.000000	1.000000
-2.035223	1.000000	0.000000	1.000000
-2.033223	1.000000	0.000000	1.000000
-2.031223	1.000000	0.000000	1.000000
-2.029223	1.000000	0.000000	1.000000
-2.027223	1.000000	0.000000	1.000000
-2.025223	1.000000	0.000000	1.000000
-2.023223	1.000000	0.000000	1.000000
-2.021223	1.000000	0.000000	1.000000
-2.019223	1.000000	0.000000	1.000000
-2.017223	1.000000	0.000000	1.000000
-2.015223	1.000000	0.000000	1.000000
-2.013223	1.000000	0.000000	1.000000
-2.011223	1.000000	0.000000	1.000000
-2.009223	1.000000	0.000000	1.000000
-2.007223	1.000000	0.000000	1.000000
-2.005223	1.000000	0.000000	1.000000
-2.003223	1.000000	0.000000	1.000000
-2.001223	1.000000	0.000000	1.000000
-1.999223	1.000000	0.000000	1.000000
-1.997223	1.000000	0.000000	1.000000
-1.995223	1.000000	0.000000	1.000000
-1.993223	1.000000	0.000000	1.000000
-1.991223	1.000000	0.000000	1.000000
-1.989223	1.000000	0.000000	1.000000
-1.987223	1.000000	0.000000	1.000000
-1.985223	1.000000	0.000000	1.000000
-1.983223	1.000000	0.000000	1.000000
-1.981223	1.000000	0.000000	1.000000
-1.979223	1.000000	0.000000	1.000000
-1.977223	1.000000	0.000000	1.000000
-1.975223	1.000000	0.000000	1.000000
-1.973223	1.000000	0.000000	1.000000
-1.971223	1.000000	0.000000	1.000000
-1.969223	1.000000	0.000000	1.000000
-1.967223	1.000000	0.000000	1.000000
-1.965223	1.000000	0.000000	1.000000
-1.963223	1.000000	0.000000	1.000000
-1.961223	1.000000	0.000000	1.000000
-1.959223	1.000000	0.000000	1.000000
-1.957223	1.000000	0.000000	1.000000
-1.955223	1.000000	0.000000	1.000000
-1.953223	1.000000	0.000000	1.000000
-1.951223	1.000000	0.000000	1.000000
-1.949223	1.000000	0.000000	1.000000
-1.947223	1.000000	0.000000	1.000000
-1.945223	1.000000	0.000000	1.000000
-1.943223	1.000000	0.000000	1.000000
-1.941223	1.000000	0.000000	1.000000
-1.939223	1.000000	0.000000	1.000000
-1.937223	1.000000	0.000000	1.000000
-1.935223	1.000000	0.000000	1.000000
-1.933223	1.000000	0.000000	1.000000
-1.931223	1.000000	0.000000	1.000000
-1.929223	1.000000	0.000000	1.000000
-1.927223	1.000000	0.000000	1.000000
-1.925223	1.000000	0.000000	1.000000
-1.923223	1.000000	0.000000	1.000000
-1.921223	1.000000	0.000000	1.000000
-1.919223	1.000000	0.000000	1.000000
-1.917223	1.000000	0.000000	1.000000
-1.915223	1.000000	0.000000	1.000000
-1.913223	1.000000	0.000000	1.000000
-1.911223	1.000000	0.000000	1.000000
-1.909223	1.000000	0.000000	1.000000
-1.907223	1.000000	0.000000	1.000000
-1.905223	1.000000	0.000000	1.000000
-1.903223	1.000000	0.000000	1.000000
-1.901223	1.000000	0.000000	1.000000
-1.899223	1.000000	0.000000	1.000000
-1.897223	1.000000	0.000000	1.000000
-1.895223	1.000000	0.000000	1.000000
-1.893223	1.000000	0.000000	1.000000
-1.891223	1.000000	0.000000	1.000000
-1.889223	1.000000	0.000000	1.000000
-1.887223	1.000000	0.000000	1.000000
-1.885223	1.000000	0.000000	1.000000
-1.883223	1.000000	0.000000	1.000000
-1.881223	1.000000	0.000000	1.000000
-1.879223	1.000000	0.000000	1.000000
-1.877223	1.000000	0.000000	1.000000
-1.875223	1.000000	0.000000	1.000000
-1.873223	1.000000	0.000000	1.000000
-1.871223	1.000000	0.000000	1.000000
-1.869223	1.000000	0.000000	1.000000
-1.867223	1.000000	0.000000	1.000000
-1.865223	1.000000	0.000000	1.000000
-1.863223	1.000000	0.000000	1.000000
-1.861223	1.000000	0.000000	1.000000
-1.859223	1.000000	0.000000	1.000000
-1.857223	1.000000	0.000000	1.000000
-1.855223	1.000000	0.000000	1.000000
-1.853223	1.000000	0.000000	1.000000
-1.851223	1.000000	0.000000	1.000000
-1.849223	1.000000	0.000000	1.000000
-1.847223	1.000000	0.000000	1.000000
-1.845223	1.000000	0.000000	1.000000
-1.843223	1.000000	0.000000	1.000000
-1.841223	1.000000	0.000000	1.000000
-1.839223	1.000000	0.000000	1.000000
-1.837223	1.000000	0.000000	1.000000
-1.835223	1.000000	0.000000	1.000000
-1.833223	1.000000	0.000000	1.000000
-1.831223	1.000000	0.000000	1.000000
-1.829223	1.000000	0.000000	1.000000
-1.827223	1.000000	0.000000	1.000000
-1.825223	1.000000	0.000000	1.000000
-1.823223	1.000000	0.000000	1.000000
-1.821223	1.000000	0.000000	1.000000
-1.819223	1.000000	0.000000	1.000000
-1.817223	1.000000	0.000000	1.000000
-1.815223	1.000000	0.000000	1.000000
-1.813223	1.000000	0.000000	1.000000
-1.811223	1.000000	0.000000	1.000000
-1.809223	1.000000	0.000000	1.000000
-1.807223	1.000000	0.000000	1.000000
-1.805223	1.000000	0.000000	1.000000
-1.803223	1.000000	0.000000	1.000000
-1.801223	1.000000	0.000000	1.000000
-1.799223	1.000000	0.000000	1.000000
-1.797223	1.000000	0.000000	1.000000
-1.795223	1.000000	0.000000	1.000000
-1.793223	1.000000	0.000000	1.000000
-1.791223	1.000000	0.000000	1.000000
-1.789223	1.000000	0.000000	1.000000
-1.787223	1.000000	0.000000	1.000000
-1.785223	1.000000	0.000000	1.000000
-1.783223	1.000000	0.000000	1.000000
-1.781223	1.000000	0.000000	1.000000
-1.779223	1.000000	0.000000	1.000000
-1.777223	1.000000	0.000000	1.000000
-1.775223	1.000000	0.000000	1.000000
-1.773223	1.000000	0.000000	1.000000
-1.771223	1.000000	0.000000	1.000000
-1.769223	1.000000	0.000000	1.000000
-1.767223	1.000000	0.000000	1.000000
-1.765223	1.000000	0.000000	1.000000
-1.763223	1.000000	0.000000	1.000000
-1.761223	1.000000	0.000000	1.000000
-1.759223	1.000000	0.000000	1.000000
-1.757223	1.000000	0.000000	1.000000
-1.755223	1.000000	0.000000	1.000000
-1.753223	1.000000	0.000000	1.000000
-1.751223	1.000000	0.000000	1.000000
-1.749223	1.000000	0.000000	1.000000
-1.747223	1.000000	0.000000	1.000000
-1.745223	1.000000	0.000000	1.000000
-1.743223	1.000000	0.000000	1.000000
-1.741223	1.000000	0.000000	1.000000
-1.739223	1.000000	0.000000	1.000000
-1.737223	1.000000	0.000000	1.000000
-1.735223	1.000000	0.000000	1.000000
-1.733223	1.000000	0.000000	1.000000
-1.731223	1.000000	0.000000	1.000000
-1.729223	1.000000	0.000000	1.000000
-1.727223	1.000000	0.000000	1.000000
-1.725223	1.000000	0.000000	1.000000
-1.723223	1.000000	0.000000	1.000000
-1.721223	1.000000	0.000000	1.000000
-1.719223	1.000000	0.000000	1.000000
-1.717223	1.000000	0.000000	1.000000
-1.715223	1.000000	0.000000	1.000000
-1.713223	1.000000	0.000000	1.000000
-1.711223	1.000000	0.000000	1.000000
-1.709223	1.000000	0.000000	1.000000
-1.707223	1.000000	0.000000	1.000000
-1.705223	1.000000	0.000000	1.000000
-1.703223	1.000000	0.000000	1.000000
-1.701223	1.000000	0.000000	1.000000
-1.699223	1.000000	0.000000	1.000000
-1.697223	1.000000	0.000000	1.000000
-1.695223	1.000000	0.000000	1.000000
-1.693223	1.000000	0.000000	1.000000
-1.691223	1.000000	0.000000	1.000000
-1.689223	1.000000	0.000000	1.000000
-1.687223	1.000000	0.000000	1.000000
-1.685223	1.000000	0.000000	1.000000
-1.683223	1.000000	0.000000	1.000000
-1.681223	1.000000	0.000000	1.000000
-1.679223	1.000000	0.000000	1.000000
-1.677223	1.000000	0.000000	1.000000
-1.675223	1.000000	0.000000	1.000000
-1.673223	1.000000	0.000000	1.000000
-1.671223	1.000000	0.000000	1.000000
-1.669223	1.000000	0.000000	1.000000
-1.667223	1.000000	0.000000	1.000000
-1.665223	1.000000	0.000000	1.000000
-1.663223	1.000000	0.000000	1.000000
-1.661223	1.000000	0.000000	1.000000
-1.659223	1.000000	0.000000	1.000000
-1.657223	1.000000	0.000000	1.000000
-1.655223	1.000000	0.000000	1.000000
-1.653223	1.000000	0.000000	1.000000
-1.651223	1.000000	0.000000	1.000000
-1.649223	1.000000	0.000000	1.000000
-1.647223	1.000000	0.000000	1.000000
-1.645223	1.000000	0.000000	1.000000
-1.643223	1.000000	0.000000	1.000000
-1.641223	1.000000	0.000000	1.000000
-1.639223	1.000000	0.000000	1.000000
-1.637223	1.000000	0.000000	1.000000
-1.635223	1.000000	0.000000	1.000000
-1.633223	1.000000	0.000000	1.000000
-1.631223	1.000000	0.000000	1.000000
-1.629223	1.000000	0.000000	1.000000
-1.627223	1.000000	0.000000	1.000000
-1.625223	1.000000	0.000000	1.000000
-1.623223	1.000000	0.000000	1.000000
-1.621223	1.000000	0.000000	1.000000
-1.619223	1.000000	0.000000	1.000000
-1.617223	1.000000	0.000000	1.000000
-1.615223	1.000000	0.000000	1.000000
-1.613223	1.000000	0.000000	1.000000
-1.611223	1.000000	0.000000	1.000000
-1.609223	1.000000	0.000000	1.000000
-1.607223	1.000000	0.000000	1.000000
-1.605223	1.000000	0.000000	1.000000
-1.603223	1.000000	0.000000	1.000000
-1.601223	1.000000	0.000000	1.000000
-1.599223	1.000000	0.000000	1.000000
-1.597223	1.000000	0.000000	1.000000
-1.595223	1.000000	0.000000	1.000000
-1.593223	1.000000	0.000000	1.000000
-1.591223	1.000000	0.000000	1.000000
-1.589223	1.000000	0.000000	1.000000
-1.587223	1.000000	0.000000	1.000000
-1.585223	1.000000	0.000000	1.000000
-1.583223	1.000000	0.000000	1.000000
-1.581223	1.000000	0.000000	1.000000
-1.579223	1.000000	0.000000	1.000000
-1.577223	1.000000	0.000000	1.000000
-1.575223	1.000000	0.000000	1.000000
-1.573223	1.000000	0.000000	1.000000
-1.571223	1.000000	0.000000	1.000000
-1.569223	1.000000	0.000000	1.000000
-1.567223	1.000000	0.000000	1.000000
-1.565223	1.000000	0.000000	1.000000
-1.563223	1.000000	0.000000	1.000000
-1.561223	1.000000	0.000000	1.000000
-1.559223	1.000000	0.000000	1.000000
-1.557223	1.000000	0.000000	1.000000
-1.555223	1.000000	0.000000	1.000000
-1.553223	1.000000	0.000000	1.000000
-1.551223	1.000000	0.000000	1.000000
-1.549223	1.000000	0.000000	1.000000
-1.547223	1.000000	0.000000	1.000000
-1.545223	1.000000	0.000000	1.000000
-1.543223	1.000000	0.000000	1.000000
-1.541223	1.000000	0.000000	1.000000
-1.539223	1.000000	0.000000	1.000000
-1.537223	1.000000	0.000000	1.000000
-1.535223	1.000000	0.000000	1.000000
-1.533223	1.000000	0.000000	1.000000
-1.531223	1.000000	0.000000	1.000000
-1.529223	1.000000	0.000000	1.000000
-1.527223	1.000000	0.000000	1.000000
-1.525223	1.000000	0.000000	1.000000
-1.523223	1.000000	0.000000	1.000000
-1.521223	1.000000	0.000000	1.000000
-1.519223	1.000000	0.000000	1.000000
-1.517223	1.000000	0.000000	1.000000
-1.515223	1.000000	0.000000	1.000000
-1.513223	1.000000	0.000000	1.000000
-1.511223	1.000000	0.000000	1.000000
-1.509223	1.000000	0.000000	1.000000
-1.507223	1.000000	0.000000	1.000000
-1.505223	1.000000	0.000000	1.000000
-1.503223	1.000000	0.000000	1.000000
-1.501223	1.000000	0.000000	1.000000
-1.499223	1.000000	0.000000	1.000000
-1.497223	1.000000	0.000000	1.000000
-1.495223	1.000000	0.000000	1.000000
-1.493223	1.000000	0.000000	1.000000
-1.491223	1.000000	0.000000	1.000000
-1.489223	1.000000	0.000000	1.000000
-1.487223	1.000000	0.000000	1.000000
-1.485223	1.000000	0.000000	1.000000
-1.483223	1.000000	0.000000	1.000000
-1.481223	1.000000	0.000000	1.000000
-1.479223	1.000000	0.000000	1.000000
-1.477223	1.000000	0.000000	1.000000
-1.475223	1.000000	0.000000	1.000000
-1.473223	1.000000	0.000000	1.000000
-1.471223	1.000000	0.000000	1.000000
-1.469223	1.000000	0.000000	1.000000
-1.467223	1.000000	0.000000	1.000000
-1.465223	1.000000	0.000000	1.000000
-1.463223	1.000000	0.000000	1.000000
-1.461223	1.000000	0.000000	1.000000
-1.459223	1.000000	0.000000	1.000000
-1.457223	1.000000	0.000000	1.000000
-1.455223	1.000000	0.000000	1.000000
-1.453223	1.000000	0.000000	1.000000
-1.451223	1.000000	0.000000	1.000000
-1.449223	1.000000	0.000000	1.000000
-1.447223	1.000000	0.000000	1.000000
-1.445223	1.000000	0.000000	1.000000
-1.443223	1.000000	0.000000	1.000000
-1.441223	1.000000	0.000000	1.000000
-1.439223	1.000000	0.000000	1.000000
-1.437223	1.000000	0.000000	1.000000
-1.435223	1.000000	0.000000	1.000000
-1.433223	1.000000	0.000000	1.000000
-1.431223	1.000000	0.000000	1.000000
-1.429223	1.000000	0.000000	1.000000
-1.427223	1.000000	0.000000	1.000000
-1.425223	1.000000	0.000000	1.000000
-1.423223	1.000000	0.000000	1.000000
-1.421223	1.000000	0.000000	1.000000
-1.419223	1.000000	0.000000	1.000000
-1.417223	1.000000	0.000000	1.000000
-1.415223	1.000000	0.000000	1.000000
-1.413223	1.000000	0.000000	1.000000
-1.411223	1.000000	0.000000	1.000000
-1.409223	1.000000	0.000000	1.000000
-1.407223	1.000000	0.000000	1.000000
-1.405223	1.000000	0.000000	1.000000
-1.403223	1.000000	0.000000	1.000000
-1.401223	1.000000	0.000000	1.000000
-1.399223	1.000000	0.000000	1.000000
-1.397223	1.000000	0.000000	1.000000
-1.395223	1.000000	0.000000	1.000000
-1.393223	1.000000	0.000000	1.000000
-1.391223	1.000000	0.000000	1.000000
-1.389223	1.000000	0.000000	1.000000
-1.387223	1.000000	0.000000	1.000000
-1.385223	1.000000	0.000000	1.000000
-1.383223	1.000000	0.000000	1.000000
-1.381223	1.000000	0.000000	1.000000
-1.379223	1.000000	0.000000	1.000000
-1.377223	1.000000	0.000000	1.000000
-1.375223	1.000000	0.000000	1.000000
-1.373223	1.000000	0.000000	1.000000
-1.371223	1.000000	0.000000	1.000000
-1.369223	1.000000	0.000000	1.000000
-1.367223	1.000000	0.000000	1.000000
-1.365223	1.000000	0.000000	1.000000
-1.363223	1.000000	0.000000	1.000000
-1.361223	1.000000	0.000000	1.000000
-1.359223	1.000000	0.000000	1.000000
-1.357223	1.000000	0.000000	1.000000
-1.355223	1.000000	0.000000	1.000000
-1.353223	1.000000	0.000000	1.000000
-1.351223	1.000000	0.000000	1.000000
-1.349223	1.000000	0.000000	1.000000
-1.347223	1.000000	0.000000	1.000000
-1.345223	1.000000	0.000000	1.000000
-1.343223	1.000000	0.000000	1.000000
-1.341223	1.000000	0.000000	1.000000
-1.339223	1.000000	0.000000	1.000000
-1.337223	1.000000	0.000000	1.000000
-1.335223	1.000000	0.000000	1.000000
-1.333223	1.000000	0.000000	1.000000
-1.331223	1.000000	0.000000	1.000000
-1.329223	1.000000	0.000000	1.000000
-1.327223	1.000000	0.000000	1.000000
-1.325223	1.000000	0.000000	1.000000
-1.323223	1.000000	0.000000	1.000000
-1.321223	1.000000	0.000000	1.000000
-1.319223	1.000000	0.000000	1.000000
-1.317223	1.000000	0.000000	1.000000
-1.315223	1.000000	0.000000	1.000000
-1.313223	1.000000	0.000000	1.000000
-1.311223	1.000000	0.000000	1.000000
-1.309223	1.000000	0.000000	1.000000
-1.307223	1.000000	0.000000	1.000000
-1.305223	1.000000	0.000000	1.000000
-1.303223	1.000000	0.000000	1.000000
-1.301223	1.000000	0.000000	1.000000
-1.299223	1.000000	0.000000	1.000000
-1.297223	1.000000	0.000000	1.000000
-1.295223	1.000000	0.000000	1.000000
-1.293223	1.000000	0.000000	1.000000
-1.291223	1.000000	0.000000	1.000000
-1.289223	1.000000	0.000000	1.000000
-1.287223	1.000000	0.000000	1.000000
-1.285223	1.000000	0.000000	1.000000
-1.283223	1.000000	0.000000	1.000000
-1.281223	1.000000	0.000000	1.000000
-1.279223	1.000000	0.000000	1.000000
-1.277223	1.000000	0.000000	1.000000
-1.275223	1.000000	0.000000	1.000000
-1.273223	1.000000	0.000000	1.000000
-1.271223	1.000000	0.000000	1.000000
-1.269223	1.000000	0.000000	1.000000
-1.267223	1.000000	0.000000	1.000000
-1.265223	1.000000	0.000000	1.000000
-1.263223	1.000000	0.000000	1.000000
-1.261223	1.000000	0.000000	1.000000
-1.259223	1.000000	0.000000	1.000000
-1.257223	1.000000	0.000000	1.000000
-1.255223	1.000000	0.000000	1.000000
-1.253223	1.000000	0.000000	1.000000
-1.251223	1.000000	0.000000	1.000000
-1.249223	1.000000	0.000000	1.000000
-1.247223	1.000000	0.000000	1.000000
-1.245223	1.000000	0.000000	1.000000
-1.243223	1.000000	0.000000	1.000000
-1.241223	1.000000	0.000000	1.000000
-1.239223	1.000000	0.000000	1.000000
-1.237223	1.000000	0.000000	1.000000
-1.235223	1.000000	0.000000	1.000000
-1.233223	1.000000	0.000000	1.000000
-1.231223	1.000000	0.000000	1.000000
-1.229223	1.000000	0.000000	1.000000
-1.227223	1.000000	0.000000	1.000000
-1.225223	1.000000	0.000000	1.000000
-1.223223	1.000000	0.000000	1.000000
-1.221223	1.000000	0.000000	1.000000
-1.219223	1.000000	0.000000	1.000000
-1.217223	1.000000	0.000000	1.000000
-1.215223	1.000000	0.000000	1.000000
-1.213223	1.000000	0.000000	1.000000
-1.211223	1.000000	0.000000	1.000000
-1.209223	1.000000	0.000000	1.000000
-1.207223	1.000000	0.000000	1.000000
-1.205223	1.000000	0.000000	1.000000
-1.203223	1.000000	0.000000	1.000000
-1.201223	1.000000	0.000000	1.000000
-1.199223	1.000000	0.000000	1.000000
-1.197223	1.000000	0.000000	1.000000
-1.195223	1.000000	0.000000	1.000000
-1.193223	1.000000	0.000000	1.000000
-1.191223	1.000000	0.000000	1.000000
-1.189223	1.000000	0.000000	1.000000
-1.187223	1.000000	0.000000	1.000000
-1.185223	1.000000	0.000000	1.000000
-1.183223	1.000000	0.000000	1.000000
-1.181223	1.000000	0.000000	1.000000
-1.179223	1.000000	0.000000	1.000000
-1.177223	1.000000	0.000000	1.000000
-1.175223	1.000000	0.000000	1.000000
-1.173223	1.000000	0.000000	1.000000
-1.171223	1.000000	0.000000	1.000000
-1.169223	1.000000	0.000000	1.000000
-1.167223	1.000000	0.000000	1.000000
-1.165223	1.000000	0.000000	1.000000
-1.163223	1.000000	0.000000	1.000000
-1.161223	1.000000	0.000000	1.000000
-1.159223	1.000000	0.000000	1.000000
-1.157223	1.000000	0.000000	1.000000
-1.155223	1.000000	0.000000	1.000000
-1.153223	1.000000	0.000000	1.000000
-1.151223	1.000000	0.000000	1.000000
-1.149223	1.000000	0.000000	1.000000